MODEL 1
REMARK VINA RESULT:    -9.147      0.000      0.000
REMARK INTER + INTRA:         -14.939
REMARK INTER:                 -13.960
REMARK INTRA:                  -0.979
REMARK UNBOUND:                -0.979
REMARK SMILES COc1cc(OC)cc(N(CCNC(C)C)c2ccc3ncc(-c4cnn(C)c4)nc3c2)c1
REMARK SMILES IDX 11 1 10 2 9 3 3 4 33 5 4 6 5 7 8 8 2 9 1 10 6 11 7 12 17 13
REMARK SMILES IDX 32 14 18 15 31 16 19 17 30 18 20 19 23 20 21 21 22 22 24 23
REMARK SMILES IDX 29 24 25 25 27 26 26 27 28 28 12 29 13 30 14 32 15 33 16 34
REMARK H PARENT 13 31
ROOT
ATOM      1  C   UNL     1      87.365   3.417  13.599  1.00  0.00    +0.138 C 
ENDROOT
BRANCH   1   2
ATOM      2  N   UNL     1      88.327   2.309  13.469  1.00  0.00    -0.340 N 
BRANCH   2   3
ATOM      3  C   UNL     1      89.046   2.010  14.661  1.00  0.00    +0.049 A 
ATOM      4  C   UNL     1      89.297   0.712  16.684  1.00  0.00    +0.124 A 
ATOM      5  C   UNL     1      88.593   1.005  15.516  1.00  0.00    +0.073 A 
ATOM      6  C   UNL     1      90.455   1.424  16.996  1.00  0.00    +0.093 A 
ATOM      7  C   UNL     1      90.908   2.429  16.142  1.00  0.00    +0.124 A 
ATOM      8  C   UNL     1      90.203   2.722  14.974  1.00  0.00    +0.073 A 
BRANCH   4   9
ATOM      9  O   UNL     1      88.855  -0.269  17.516  1.00  0.00    -0.497 OA
ATOM     10  C   UNL     1      89.196  -0.152  18.896  1.00  0.00    +0.278 C 
ENDBRANCH   4   9
BRANCH   7  11
ATOM     11  O   UNL     1      92.039   3.122  16.447  1.00  0.00    -0.497 OA
ATOM     12  C   UNL     1      92.409   3.184  17.824  1.00  0.00    +0.278 C 
ENDBRANCH   7  11
ENDBRANCH   2   3
BRANCH   2  13
ATOM     13  C   UNL     1      88.279   1.526  12.299  1.00  0.00    +0.043 A 
ATOM     14  C   UNL     1      87.434   1.883  11.250  1.00  0.00    +0.056 A 
ATOM     15  C   UNL     1      89.073   0.394  12.181  1.00  0.00    +0.028 A 
ATOM     16  C   UNL     1      87.369   1.128  10.082  1.00  0.00    +0.091 A 
ATOM     17  C   UNL     1      89.015  -0.369  11.017  1.00  0.00    +0.033 A 
ATOM     18  N   UNL     1      86.546   1.494   9.083  1.00  0.00    -0.244 NA
ATOM     19  C   UNL     1      88.174  -0.020   9.964  1.00  0.00    +0.089 A 
ATOM     20  C   UNL     1      86.521   0.727   7.978  1.00  0.00    +0.092 A 
ATOM     21  N   UNL     1      88.135  -0.773   8.850  1.00  0.00    -0.252 NA
ATOM     22  C   UNL     1      87.304  -0.389   7.863  1.00  0.00    +0.140 A 
BRANCH  20  23
ATOM     23  C   UNL     1      85.639   1.138   6.928  1.00  0.00    +0.040 A 
ATOM     24  C   UNL     1      85.448   0.437   5.761  1.00  0.00    +0.118 A 
ATOM     25  C   UNL     1      84.802   2.262   6.803  1.00  0.00    +0.145 A 
ATOM     26  N   UNL     1      84.544   1.157   5.038  1.00  0.00    -0.275 N 
ATOM     27  N   UNL     1      84.130   2.280   5.649  1.00  0.00    -0.181 NA
ATOM     28  C   UNL     1      84.028   0.820   3.733  1.00  0.00    +0.173 C 
ENDBRANCH  20  23
ENDBRANCH   2  13
ENDBRANCH   1   2
BRANCH   1  29
ATOM     29  C   UNL     1      86.014   2.872  14.044  1.00  0.00    +0.103 C 
BRANCH  29  30
ATOM     30  N   UNL     1      85.122   3.964  14.407  1.00  0.00    -0.313 NA
ATOM     31  H   UNL     1      84.808   3.824  15.368  1.00  0.00    +0.123 HD
BRANCH  30  32
ATOM     32  C   UNL     1      83.974   4.019  13.513  1.00  0.00    +0.047 C 
ATOM     33  C   UNL     1      83.815   2.692  12.775  1.00  0.00    +0.024 C 
ATOM     34  C   UNL     1      84.149   5.173  12.531  1.00  0.00    +0.024 C 
ENDBRANCH  30  32
ENDBRANCH  29  30
ENDBRANCH   1  29
TORSDOF 9
ENDMDL
MODEL 2
REMARK VINA RESULT:    -9.122      0.289      1.876
REMARK INTER + INTRA:         -14.901
REMARK INTER:                 -13.933
REMARK INTRA:                  -0.967
REMARK UNBOUND:                -0.979
REMARK SMILES COc1cc(OC)cc(N(CCNC(C)C)c2ccc3ncc(-c4cnn(C)c4)nc3c2)c1
REMARK SMILES IDX 11 1 10 2 9 3 3 4 33 5 4 6 5 7 8 8 2 9 1 10 6 11 7 12 17 13
REMARK SMILES IDX 32 14 18 15 31 16 19 17 30 18 20 19 23 20 21 21 22 22 24 23
REMARK SMILES IDX 29 24 25 25 27 26 26 27 28 28 12 29 13 30 14 32 15 33 16 34
REMARK H PARENT 13 31
ROOT
ATOM      1  C   UNL     1      87.268   3.404  13.441  1.00  0.00    +0.138 C 
ENDROOT
BRANCH   1   2
ATOM      2  N   UNL     1      88.240   2.303  13.326  1.00  0.00    -0.340 N 
BRANCH   2   3
ATOM      3  C   UNL     1      88.940   2.007  14.530  1.00  0.00    +0.049 A 
ATOM      4  C   UNL     1      90.805   2.394  16.017  1.00  0.00    +0.124 A 
ATOM      5  C   UNL     1      90.119   2.685  14.837  1.00  0.00    +0.073 A 
ATOM      6  C   UNL     1      90.309   1.425  16.890  1.00  0.00    +0.093 A 
ATOM      7  C   UNL     1      89.130   0.747  16.583  1.00  0.00    +0.124 A 
ATOM      8  C   UNL     1      88.445   1.037  15.402  1.00  0.00    +0.073 A 
BRANCH   4   9
ATOM      9  O   UNL     1      91.954   3.056  16.317  1.00  0.00    -0.497 OA
ATOM     10  C   UNL     1      92.335   3.109  17.690  1.00  0.00    +0.278 C 
ENDBRANCH   4   9
BRANCH   7  11
ATOM     11  O   UNL     1      88.647  -0.197  17.436  1.00  0.00    -0.497 OA
ATOM     12  C   UNL     1      89.349  -0.381  18.664  1.00  0.00    +0.278 C 
ENDBRANCH   7  11
ENDBRANCH   2   3
BRANCH   2  13
ATOM     13  C   UNL     1      88.218   1.522  12.153  1.00  0.00    +0.043 A 
ATOM     14  C   UNL     1      87.366   1.857  11.104  1.00  0.00    +0.056 A 
ATOM     15  C   UNL     1      89.044   0.414  12.035  1.00  0.00    +0.028 A 
ATOM     16  C   UNL     1      87.325   1.103   9.933  1.00  0.00    +0.091 A 
ATOM     17  C   UNL     1      89.011  -0.348  10.869  1.00  0.00    +0.033 A 
ATOM     18  N   UNL     1      86.494   1.448   8.934  1.00  0.00    -0.244 NA
ATOM     19  C   UNL     1      88.163  -0.021   9.814  1.00  0.00    +0.089 A 
ATOM     20  C   UNL     1      86.495   0.683   7.826  1.00  0.00    +0.092 A 
ATOM     21  N   UNL     1      88.149  -0.771   8.699  1.00  0.00    -0.252 NA
ATOM     22  C   UNL     1      87.310  -0.410   7.711  1.00  0.00    +0.140 A 
BRANCH  20  23
ATOM     23  C   UNL     1      85.604   1.071   6.775  1.00  0.00    +0.040 A 
ATOM     24  C   UNL     1      85.446   0.375   5.600  1.00  0.00    +0.118 A 
ATOM     25  C   UNL     1      84.726   2.164   6.656  1.00  0.00    +0.145 A 
ATOM     26  N   UNL     1      84.519   1.068   4.879  1.00  0.00    -0.275 N 
ATOM     27  N   UNL     1      84.060   2.169   5.499  1.00  0.00    -0.181 NA
ATOM     28  C   UNL     1      84.023   0.724   3.568  1.00  0.00    +0.173 C 
ENDBRANCH  20  23
ENDBRANCH   2  13
ENDBRANCH   1   2
BRANCH   1  29
ATOM     29  C   UNL     1      85.967   2.878  14.033  1.00  0.00    +0.103 C 
BRANCH  29  30
ATOM     30  N   UNL     1      85.086   3.984  14.384  1.00  0.00    -0.313 NA
ATOM     31  H   UNL     1      85.012   4.033  15.400  1.00  0.00    +0.123 HD
BRANCH  30  32
ATOM     32  C   UNL     1      83.766   3.804  13.797  1.00  0.00    +0.047 C 
ATOM     33  C   UNL     1      83.456   2.318  13.635  1.00  0.00    +0.024 C 
ATOM     34  C   UNL     1      83.703   4.526  12.455  1.00  0.00    +0.024 C 
ENDBRANCH  30  32
ENDBRANCH  29  30
ENDBRANCH   1  29
TORSDOF 9
ENDMDL
MODEL 3
REMARK VINA RESULT:    -8.466      2.243      4.673
REMARK INTER + INTRA:         -13.899
REMARK INTER:                 -12.828
REMARK INTRA:                  -1.070
REMARK UNBOUND:                -0.979
REMARK SMILES COc1cc(OC)cc(N(CCNC(C)C)c2ccc3ncc(-c4cnn(C)c4)nc3c2)c1
REMARK SMILES IDX 11 1 10 2 9 3 3 4 33 5 4 6 5 7 8 8 2 9 1 10 6 11 7 12 17 13
REMARK SMILES IDX 32 14 18 15 31 16 19 17 30 18 20 19 23 20 21 21 22 22 24 23
REMARK SMILES IDX 29 24 25 25 27 26 26 27 28 28 12 29 13 30 14 32 15 33 16 34
REMARK H PARENT 13 31
ROOT
ATOM      1  C   UNL     1      88.936   3.052  14.084  1.00  0.00    +0.138 C 
ENDROOT
BRANCH   1   2
ATOM      2  N   UNL     1      87.724   2.743  13.306  1.00  0.00    -0.340 N 
BRANCH   2   3
ATOM      3  C   UNL     1      86.591   3.537  13.640  1.00  0.00    +0.049 A 
ATOM      4  C   UNL     1      84.242   3.709  14.181  1.00  0.00    +0.124 A 
ATOM      5  C   UNL     1      85.353   2.931  13.854  1.00  0.00    +0.073 A 
ATOM      6  C   UNL     1      84.371   5.094  14.296  1.00  0.00    +0.093 A 
ATOM      7  C   UNL     1      85.609   5.699  14.083  1.00  0.00    +0.124 A 
ATOM      8  C   UNL     1      86.719   4.921  13.754  1.00  0.00    +0.073 A 
BRANCH   4   9
ATOM      9  O   UNL     1      83.035   3.118  14.391  1.00  0.00    -0.497 OA
ATOM     10  C   UNL     1      82.889   1.768  13.956  1.00  0.00    +0.278 C 
ENDBRANCH   4   9
BRANCH   7  11
ATOM     11  O   UNL     1      85.734   7.050  14.196  1.00  0.00    -0.497 OA
ATOM     12  C   UNL     1      86.650   7.693  13.310  1.00  0.00    +0.278 C 
ENDBRANCH   7  11
ENDBRANCH   2   3
BRANCH   2  13
ATOM     13  C   UNL     1      87.855   1.894  12.188  1.00  0.00    +0.043 A 
ATOM     14  C   UNL     1      87.057   2.089  11.063  1.00  0.00    +0.056 A 
ATOM     15  C   UNL     1      88.781   0.861  12.199  1.00  0.00    +0.028 A 
ATOM     16  C   UNL     1      87.168   1.266   9.945  1.00  0.00    +0.091 A 
ATOM     17  C   UNL     1      88.899   0.032  11.086  1.00  0.00    +0.033 A 
ATOM     18  N   UNL     1      86.386   1.475   8.870  1.00  0.00    -0.244 NA
ATOM     19  C   UNL     1      88.106   0.218   9.956  1.00  0.00    +0.089 A 
ATOM     20  C   UNL     1      86.534   0.650   7.818  1.00  0.00    +0.092 A 
ATOM     21  N   UNL     1      88.239  -0.595   8.894  1.00  0.00    -0.252 NA
ATOM     22  C   UNL     1      87.447  -0.370   7.830  1.00  0.00    +0.140 A 
BRANCH  20  23
ATOM     23  C   UNL     1      85.692   0.892   6.686  1.00  0.00    +0.040 A 
ATOM     24  C   UNL     1      84.966   2.043   6.495  1.00  0.00    +0.118 A 
ATOM     25  C   UNL     1      85.397   0.101   5.560  1.00  0.00    +0.145 A 
ATOM     26  N   UNL     1      84.307   1.876   5.313  1.00  0.00    -0.275 N 
ATOM     27  N   UNL     1      84.550   0.697   4.717  1.00  0.00    -0.181 NA
ATOM     28  C   UNL     1      83.413   2.823   4.690  1.00  0.00    +0.173 C 
ENDBRANCH  20  23
ENDBRANCH   2  13
ENDBRANCH   1   2
BRANCH   1  29
ATOM     29  C   UNL     1      88.965   2.201  15.347  1.00  0.00    +0.103 C 
BRANCH  29  30
ATOM     30  N   UNL     1      89.433   2.988  16.479  1.00  0.00    -0.313 NA
ATOM     31  H   UNL     1      89.808   3.870  16.130  1.00  0.00    +0.123 HD
BRANCH  30  32
ATOM     32  C   UNL     1      90.459   2.272  17.223  1.00  0.00    +0.047 C 
ATOM     33  C   UNL     1      91.821   2.932  17.018  1.00  0.00    +0.024 C 
ATOM     34  C   UNL     1      90.486   0.813  16.777  1.00  0.00    +0.024 C 
ENDBRANCH  30  32
ENDBRANCH  29  30
ENDBRANCH   1  29
TORSDOF 9
ENDMDL
MODEL 4
REMARK VINA RESULT:    -8.387      2.345      5.111
REMARK INTER + INTRA:         -13.779
REMARK INTER:                 -12.942
REMARK INTRA:                  -0.837
REMARK UNBOUND:                -0.979
REMARK SMILES COc1cc(OC)cc(N(CCNC(C)C)c2ccc3ncc(-c4cnn(C)c4)nc3c2)c1
REMARK SMILES IDX 11 1 10 2 9 3 3 4 33 5 4 6 5 7 8 8 2 9 1 10 6 11 7 12 17 13
REMARK SMILES IDX 32 14 18 15 31 16 19 17 30 18 20 19 23 20 21 21 22 22 24 23
REMARK SMILES IDX 29 24 25 25 27 26 26 27 28 28 12 29 13 30 14 32 15 33 16 34
REMARK H PARENT 13 31
ROOT
ATOM      1  C   UNL     1      88.922   3.217  14.339  1.00  0.00    +0.138 C 
ENDROOT
BRANCH   1   2
ATOM      2  N   UNL     1      87.746   2.921  13.503  1.00  0.00    -0.340 N 
BRANCH   2   3
ATOM      3  C   UNL     1      86.617   3.749  13.760  1.00  0.00    +0.049 A 
ATOM      4  C   UNL     1      85.690   5.908  14.326  1.00  0.00    +0.124 A 
ATOM      5  C   UNL     1      86.797   5.096  14.075  1.00  0.00    +0.073 A 
ATOM      6  C   UNL     1      84.404   5.372  14.262  1.00  0.00    +0.093 A 
ATOM      7  C   UNL     1      84.225   4.025  13.948  1.00  0.00    +0.124 A 
ATOM      8  C   UNL     1      85.331   3.213  13.697  1.00  0.00    +0.073 A 
BRANCH   4   9
ATOM      9  O   UNL     1      85.866   7.222  14.632  1.00  0.00    -0.497 OA
ATOM     10  C   UNL     1      85.656   7.607  15.989  1.00  0.00    +0.278 C 
ENDBRANCH   4   9
BRANCH   7  11
ATOM     11  O   UNL     1      82.969   3.503  13.885  1.00  0.00    -0.497 OA
ATOM     12  C   UNL     1      82.716   2.545  12.858  1.00  0.00    +0.278 C 
ENDBRANCH   7  11
ENDBRANCH   2   3
BRANCH   2  13
ATOM     13  C   UNL     1      87.915   2.047  12.411  1.00  0.00    +0.043 A 
ATOM     14  C   UNL     1      87.137   2.198  11.265  1.00  0.00    +0.056 A 
ATOM     15  C   UNL     1      88.857   1.030  12.468  1.00  0.00    +0.028 A 
ATOM     16  C   UNL     1      87.285   1.349  10.171  1.00  0.00    +0.091 A 
ATOM     17  C   UNL     1      89.013   0.174  11.380  1.00  0.00    +0.033 A 
ATOM     18  N   UNL     1      86.523   1.517   9.076  1.00  0.00    -0.244 NA
ATOM     19  C   UNL     1      88.240   0.318  10.229  1.00  0.00    +0.089 A 
ATOM     20  C   UNL     1      86.707   0.667   8.048  1.00  0.00    +0.092 A 
ATOM     21  N   UNL     1      88.409  -0.520   9.191  1.00  0.00    -0.252 NA
ATOM     22  C   UNL     1      87.636  -0.336   8.105  1.00  0.00    +0.140 A 
BRANCH  20  23
ATOM     23  C   UNL     1      85.885   0.866   6.893  1.00  0.00    +0.040 A 
ATOM     24  C   UNL     1      85.065   1.952   6.706  1.00  0.00    +0.118 A 
ATOM     25  C   UNL     1      85.701   0.084   5.737  1.00  0.00    +0.145 A 
ATOM     26  N   UNL     1      84.463   1.762   5.497  1.00  0.00    -0.275 N 
ATOM     27  N   UNL     1      84.832   0.626   4.880  1.00  0.00    -0.181 NA
ATOM     28  C   UNL     1      83.510   2.643   4.867  1.00  0.00    +0.173 C 
ENDBRANCH  20  23
ENDBRANCH   2  13
ENDBRANCH   1   2
BRANCH   1  29
ATOM     29  C   UNL     1      88.927   2.303  15.558  1.00  0.00    +0.103 C 
BRANCH  29  30
ATOM     30  N   UNL     1      89.496   2.994  16.707  1.00  0.00    -0.313 NA
ATOM     31  H   UNL     1      89.856   3.897  16.400  1.00  0.00    +0.123 HD
BRANCH  30  32
ATOM     32  C   UNL     1      90.567   2.210  17.308  1.00  0.00    +0.047 C 
ATOM     33  C   UNL     1      91.915   2.882  17.063  1.00  0.00    +0.024 C 
ATOM     34  C   UNL     1      90.547   0.797  16.733  1.00  0.00    +0.024 C 
ENDBRANCH  30  32
ENDBRANCH  29  30
ENDBRANCH   1  29
TORSDOF 9
ENDMDL
MODEL 5
REMARK VINA RESULT:    -8.336      3.729      8.355
REMARK INTER + INTRA:         -13.702
REMARK INTER:                 -12.787
REMARK INTRA:                  -0.915
REMARK UNBOUND:                -0.979
REMARK SMILES COc1cc(OC)cc(N(CCNC(C)C)c2ccc3ncc(-c4cnn(C)c4)nc3c2)c1
REMARK SMILES IDX 11 1 10 2 9 3 3 4 33 5 4 6 5 7 8 8 2 9 1 10 6 11 7 12 17 13
REMARK SMILES IDX 32 14 18 15 31 16 19 17 30 18 20 19 23 20 21 21 22 22 24 23
REMARK SMILES IDX 29 24 25 25 27 26 26 27 28 28 12 29 13 30 14 32 15 33 16 34
REMARK H PARENT 13 31
ROOT
ATOM      1  C   UNL     1      87.485   1.642  12.744  1.00  0.00    +0.138 C 
ENDROOT
BRANCH   1   2
ATOM      2  N   UNL     1      87.669   2.566  13.876  1.00  0.00    -0.340 N 
BRANCH   2   3
ATOM      3  C   UNL     1      88.597   2.118  14.858  1.00  0.00    +0.049 A 
ATOM      4  C   UNL     1      90.734   2.322  15.966  1.00  0.00    +0.124 A 
ATOM      5  C   UNL     1      89.825   2.762  15.004  1.00  0.00    +0.073 A 
ATOM      6  C   UNL     1      90.414   1.238  16.784  1.00  0.00    +0.093 A 
ATOM      7  C   UNL     1      89.185   0.593  16.637  1.00  0.00    +0.124 A 
ATOM      8  C   UNL     1      88.277   1.033  15.674  1.00  0.00    +0.073 A 
BRANCH   4   9
ATOM      9  O   UNL     1      91.932   2.951  16.109  1.00  0.00    -0.497 OA
ATOM     10  C   UNL     1      92.409   3.147  17.439  1.00  0.00    +0.278 C 
ENDBRANCH   4   9
BRANCH   7  11
ATOM     11  O   UNL     1      88.873  -0.464  17.436  1.00  0.00    -0.497 OA
ATOM     12  C   UNL     1      89.270  -0.383  18.804  1.00  0.00    +0.278 C 
ENDBRANCH   7  11
ENDBRANCH   2   3
BRANCH   2  13
ATOM     13  C   UNL     1      87.118   3.859  13.771  1.00  0.00    +0.043 A 
ATOM     14  C   UNL     1      87.292   4.782  14.800  1.00  0.00    +0.056 A 
ATOM     15  C   UNL     1      86.399   4.223  12.641  1.00  0.00    +0.028 A 
ATOM     16  C   UNL     1      86.759   6.066  14.720  1.00  0.00    +0.091 A 
ATOM     17  C   UNL     1      85.861   5.505  12.551  1.00  0.00    +0.033 A 
ATOM     18  N   UNL     1      86.942   6.939  15.727  1.00  0.00    -0.244 NA
ATOM     19  C   UNL     1      86.030   6.434  13.575  1.00  0.00    +0.089 A 
ATOM     20  C   UNL     1      86.405   8.166  15.598  1.00  0.00    +0.092 A 
ATOM     21  N   UNL     1      85.501   7.666  13.465  1.00  0.00    -0.252 NA
ATOM     22  C   UNL     1      85.695   8.524  14.484  1.00  0.00    +0.140 A 
BRANCH  20  23
ATOM     23  C   UNL     1      86.614   9.078  16.681  1.00  0.00    +0.040 A 
ATOM     24  C   UNL     1      87.543  10.090  16.671  1.00  0.00    +0.118 A 
ATOM     25  C   UNL     1      85.991   9.186  17.939  1.00  0.00    +0.145 A 
ATOM     26  N   UNL     1      87.425  10.718  17.875  1.00  0.00    -0.275 N 
ATOM     27  N   UNL     1      86.483  10.187  18.674  1.00  0.00    -0.181 NA
ATOM     28  C   UNL     1      88.196  11.849  18.331  1.00  0.00    +0.173 C 
ENDBRANCH  20  23
ENDBRANCH   2  13
ENDBRANCH   1   2
BRANCH   1  29
ATOM     29  C   UNL     1      88.743   1.629  11.884  1.00  0.00    +0.103 C 
BRANCH  29  30
ATOM     30  N   UNL     1      88.401   1.831  10.483  1.00  0.00    -0.313 NA
ATOM     31  H   UNL     1      87.841   2.680  10.402  1.00  0.00    +0.123 HD
BRANCH  30  32
ATOM     32  C   UNL     1      87.657   0.694   9.959  1.00  0.00    +0.047 C 
ATOM     33  C   UNL     1      88.616  -0.408   9.517  1.00  0.00    +0.024 C 
ATOM     34  C   UNL     1      86.777   1.152   8.801  1.00  0.00    +0.024 C 
ENDBRANCH  30  32
ENDBRANCH  29  30
ENDBRANCH   1  29
TORSDOF 9
ENDMDL
MODEL 6
REMARK VINA RESULT:    -8.237      2.657      6.041
REMARK INTER + INTRA:         -13.549
REMARK INTER:                 -12.497
REMARK INTRA:                  -1.052
REMARK UNBOUND:                -0.979
REMARK SMILES COc1cc(OC)cc(N(CCNC(C)C)c2ccc3ncc(-c4cnn(C)c4)nc3c2)c1
REMARK SMILES IDX 11 1 10 2 9 3 3 4 33 5 4 6 5 7 8 8 2 9 1 10 6 11 7 12 17 13
REMARK SMILES IDX 32 14 18 15 31 16 19 17 30 18 20 19 23 20 21 21 22 22 24 23
REMARK SMILES IDX 29 24 25 25 27 26 26 27 28 28 12 29 13 30 14 32 15 33 16 34
REMARK H PARENT 13 31
ROOT
ATOM      1  C   UNL     1      89.017   2.409  12.750  1.00  0.00    +0.138 C 
ENDROOT
BRANCH   1   2
ATOM      2  N   UNL     1      88.527   2.762  14.093  1.00  0.00    -0.340 N 
BRANCH   2   3
ATOM      3  C   UNL     1      89.364   2.327  15.159  1.00  0.00    +0.049 A 
ATOM      4  C   UNL     1      91.364   2.587  16.490  1.00  0.00    +0.124 A 
ATOM      5  C   UNL     1      90.544   3.013  15.445  1.00  0.00    +0.073 A 
ATOM      6  C   UNL     1      91.003   1.474  17.249  1.00  0.00    +0.093 A 
ATOM      7  C   UNL     1      89.823   0.787  16.964  1.00  0.00    +0.124 A 
ATOM      8  C   UNL     1      89.004   1.214  15.918  1.00  0.00    +0.073 A 
BRANCH   4   9
ATOM      9  O   UNL     1      92.514   3.257  16.769  1.00  0.00    -0.497 OA
ATOM     10  C   UNL     1      92.757   3.591  18.134  1.00  0.00    +0.278 C 
ENDBRANCH   4   9
BRANCH   7  11
ATOM     11  O   UNL     1      89.471  -0.299  17.705  1.00  0.00    -0.497 OA
ATOM     12  C   UNL     1      89.201  -0.078  19.089  1.00  0.00    +0.278 C 
ENDBRANCH   7  11
ENDBRANCH   2   3
BRANCH   2  13
ATOM     13  C   UNL     1      87.449   3.665  14.187  1.00  0.00    +0.043 A 
ATOM     14  C   UNL     1      86.208   3.334  13.648  1.00  0.00    +0.056 A 
ATOM     15  C   UNL     1      87.614   4.889  14.819  1.00  0.00    +0.028 A 
ATOM     16  C   UNL     1      85.126   4.206  13.729  1.00  0.00    +0.091 A 
ATOM     17  C   UNL     1      86.538   5.770  14.906  1.00  0.00    +0.033 A 
ATOM     18  N   UNL     1      83.937   3.863  13.200  1.00  0.00    -0.244 NA
ATOM     19  C   UNL     1      85.294   5.448  14.369  1.00  0.00    +0.089 A 
ATOM     20  C   UNL     1      82.926   4.744  13.306  1.00  0.00    +0.092 A 
ATOM     21  N   UNL     1      84.270   6.314  14.465  1.00  0.00    -0.252 NA
ATOM     22  C   UNL     1      83.090   5.952  13.929  1.00  0.00    +0.140 A 
BRANCH  20  23
ATOM     23  C   UNL     1      81.671   4.357  12.737  1.00  0.00    +0.040 A 
ATOM     24  C   UNL     1      80.476   4.979  13.006  1.00  0.00    +0.118 A 
ATOM     25  C   UNL     1      81.337   3.330  11.834  1.00  0.00    +0.145 A 
ATOM     26  N   UNL     1      79.536   4.313  12.275  1.00  0.00    -0.275 N 
ATOM     27  N   UNL     1      80.033   3.298  11.548  1.00  0.00    -0.181 NA
ATOM     28  C   UNL     1      78.123   4.604  12.230  1.00  0.00    +0.173 C 
ENDBRANCH  20  23
ENDBRANCH   2  13
ENDBRANCH   1   2
BRANCH   1  29
ATOM     29  C   UNL     1      88.400   1.088  12.311  1.00  0.00    +0.103 C 
BRANCH  29  30
ATOM     30  N   UNL     1      88.766   0.791  10.933  1.00  0.00    -0.313 NA
ATOM     31  H   UNL     1      89.377   1.532  10.590  1.00  0.00    +0.123 HD
BRANCH  30  32
ATOM     32  C   UNL     1      87.582   0.692  10.090  1.00  0.00    +0.047 C 
ATOM     33  C   UNL     1      87.871  -0.182   8.872  1.00  0.00    +0.024 C 
ATOM     34  C   UNL     1      87.141   2.090   9.668  1.00  0.00    +0.024 C 
ENDBRANCH  30  32
ENDBRANCH  29  30
ENDBRANCH   1  29
TORSDOF 9
ENDMDL
MODEL 7
REMARK VINA RESULT:    -8.171      3.695      8.216
REMARK INTER + INTRA:         -13.449
REMARK INTER:                 -12.408
REMARK INTRA:                  -1.041
REMARK UNBOUND:                -0.979
REMARK SMILES COc1cc(OC)cc(N(CCNC(C)C)c2ccc3ncc(-c4cnn(C)c4)nc3c2)c1
REMARK SMILES IDX 11 1 10 2 9 3 3 4 33 5 4 6 5 7 8 8 2 9 1 10 6 11 7 12 17 13
REMARK SMILES IDX 32 14 18 15 31 16 19 17 30 18 20 19 23 20 21 21 22 22 24 23
REMARK SMILES IDX 29 24 25 25 27 26 26 27 28 28 12 29 13 30 14 32 15 33 16 34
REMARK H PARENT 13 31
ROOT
ATOM      1  C   UNL     1      88.795   2.568  12.571  1.00  0.00    +0.138 C 
ENDROOT
BRANCH   1   2
ATOM      2  N   UNL     1      88.328   2.908  13.926  1.00  0.00    -0.340 N 
BRANCH   2   3
ATOM      3  C   UNL     1      89.095   2.329  14.976  1.00  0.00    +0.049 A 
ATOM      4  C   UNL     1      89.334   0.687  16.733  1.00  0.00    +0.124 A 
ATOM      5  C   UNL     1      88.583   1.255  15.704  1.00  0.00    +0.073 A 
ATOM      6  C   UNL     1      90.599   1.194  17.033  1.00  0.00    +0.093 A 
ATOM      7  C   UNL     1      91.111   2.268  16.305  1.00  0.00    +0.124 A 
ATOM      8  C   UNL     1      90.359   2.836  15.277  1.00  0.00    +0.073 A 
BRANCH   4   9
ATOM      9  O   UNL     1      88.835  -0.361  17.442  1.00  0.00    -0.497 OA
ATOM     10  C   UNL     1      89.151  -0.415  18.831  1.00  0.00    +0.278 C 
ENDBRANCH   4   9
BRANCH   7  11
ATOM     11  O   UNL     1      92.346   2.761  16.598  1.00  0.00    -0.497 OA
ATOM     12  C   UNL     1      92.483   3.475  17.826  1.00  0.00    +0.278 C 
ENDBRANCH   7  11
ENDBRANCH   2   3
BRANCH   2  13
ATOM     13  C   UNL     1      87.357   3.922  14.055  1.00  0.00    +0.043 A 
ATOM     14  C   UNL     1      87.557   4.974  14.947  1.00  0.00    +0.056 A 
ATOM     15  C   UNL     1      86.197   3.880  13.296  1.00  0.00    +0.028 A 
ATOM     16  C   UNL     1      86.615   5.989  15.092  1.00  0.00    +0.091 A 
ATOM     17  C   UNL     1      85.247   4.891  13.434  1.00  0.00    +0.033 A 
ATOM     18  N   UNL     1      86.831   6.995  15.959  1.00  0.00    -0.244 NA
ATOM     19  C   UNL     1      85.438   5.947  14.322  1.00  0.00    +0.089 A 
ATOM     20  C   UNL     1      85.887   7.948  16.061  1.00  0.00    +0.092 A 
ATOM     21  N   UNL     1      84.507   6.910  14.438  1.00  0.00    -0.252 NA
ATOM     22  C   UNL     1      84.742   7.907  15.312  1.00  0.00    +0.140 A 
BRANCH  20  23
ATOM     23  C   UNL     1      86.140   9.009  16.988  1.00  0.00    +0.040 A 
ATOM     24  C   UNL     1      87.191   9.889  16.889  1.00  0.00    +0.118 A 
ATOM     25  C   UNL     1      85.455   9.411  18.150  1.00  0.00    +0.145 A 
ATOM     26  N   UNL     1      87.075  10.731  17.955  1.00  0.00    -0.275 N 
ATOM     27  N   UNL     1      86.022  10.463  18.746  1.00  0.00    -0.181 NA
ATOM     28  C   UNL     1      87.954  11.828  18.278  1.00  0.00    +0.173 C 
ENDBRANCH  20  23
ENDBRANCH   2  13
ENDBRANCH   1   2
BRANCH   1  29
ATOM     29  C   UNL     1      88.141   1.271  12.114  1.00  0.00    +0.103 C 
BRANCH  29  30
ATOM     30  N   UNL     1      87.381   1.489  10.892  1.00  0.00    -0.313 NA
ATOM     31  H   UNL     1      86.427   1.157  11.036  1.00  0.00    +0.123 HD
BRANCH  30  32
ATOM     32  C   UNL     1      87.987   0.788   9.769  1.00  0.00    +0.047 C 
ATOM     33  C   UNL     1      86.962   0.584   8.656  1.00  0.00    +0.024 C 
ATOM     34  C   UNL     1      88.549  -0.548  10.247  1.00  0.00    +0.024 C 
ENDBRANCH  30  32
ENDBRANCH  29  30
ENDBRANCH   1  29
TORSDOF 9
ENDMDL
MODEL 8
REMARK VINA RESULT:    -8.139      4.299      9.168
REMARK INTER + INTRA:         -13.400
REMARK INTER:                 -11.846
REMARK INTRA:                  -1.554
REMARK UNBOUND:                -0.979
REMARK SMILES COc1cc(OC)cc(N(CCNC(C)C)c2ccc3ncc(-c4cnn(C)c4)nc3c2)c1
REMARK SMILES IDX 11 1 10 2 9 3 3 4 33 5 4 6 5 7 8 8 2 9 1 10 6 11 7 12 17 13
REMARK SMILES IDX 32 14 18 15 31 16 19 17 30 18 20 19 23 20 21 21 22 22 24 23
REMARK SMILES IDX 29 24 25 25 27 26 26 27 28 28 12 29 13 30 14 32 15 33 16 34
REMARK H PARENT 13 31
ROOT
ATOM      1  C   UNL     1      82.456   2.647  13.333  1.00  0.00    +0.138 C 
ENDROOT
BRANCH   1   2
ATOM      2  N   UNL     1      83.153   3.130  12.129  1.00  0.00    -0.340 N 
BRANCH   2   3
ATOM      3  C   UNL     1      82.426   4.095  11.374  1.00  0.00    +0.049 A 
ATOM      4  C   UNL     1      82.262   6.299  10.400  1.00  0.00    +0.124 A 
ATOM      5  C   UNL     1      82.974   5.355  11.140  1.00  0.00    +0.073 A 
ATOM      6  C   UNL     1      81.001   5.982   9.895  1.00  0.00    +0.093 A 
ATOM      7  C   UNL     1      80.453   4.721  10.130  1.00  0.00    +0.124 A 
ATOM      8  C   UNL     1      81.165   3.777  10.870  1.00  0.00    +0.073 A 
BRANCH   4   9
ATOM      9  O   UNL     1      82.797   7.529  10.171  1.00  0.00    -0.497 OA
ATOM     10  C   UNL     1      81.899   8.568   9.787  1.00  0.00    +0.278 C 
ENDBRANCH   4   9
BRANCH   7  11
ATOM     11  O   UNL     1      79.222   4.412   9.636  1.00  0.00    -0.497 OA
ATOM     12  C   UNL     1      78.277   5.477   9.538  1.00  0.00    +0.278 C 
ENDBRANCH   7  11
ENDBRANCH   2   3
BRANCH   2  13
ATOM     13  C   UNL     1      84.511   2.791  11.970  1.00  0.00    +0.043 A 
ATOM     14  C   UNL     1      85.353   2.730  13.079  1.00  0.00    +0.056 A 
ATOM     15  C   UNL     1      85.020   2.513  10.710  1.00  0.00    +0.028 A 
ATOM     16  C   UNL     1      86.698   2.395  12.950  1.00  0.00    +0.091 A 
ATOM     17  C   UNL     1      86.365   2.177  10.570  1.00  0.00    +0.033 A 
ATOM     18  N   UNL     1      87.490   2.342  14.037  1.00  0.00    -0.244 NA
ATOM     19  C   UNL     1      87.214   2.113  11.672  1.00  0.00    +0.089 A 
ATOM     20  C   UNL     1      88.783   2.014  13.855  1.00  0.00    +0.092 A 
ATOM     21  N   UNL     1      88.509   1.787  11.512  1.00  0.00    -0.252 NA
ATOM     22  C   UNL     1      89.284   1.741  12.611  1.00  0.00    +0.140 A 
BRANCH  20  23
ATOM     23  C   UNL     1      89.605   1.963  15.025  1.00  0.00    +0.040 A 
ATOM     24  C   UNL     1      90.584   2.881  15.322  1.00  0.00    +0.118 A 
ATOM     25  C   UNL     1      89.644   1.050  16.095  1.00  0.00    +0.145 A 
ATOM     26  N   UNL     1      91.127   2.477  16.505  1.00  0.00    -0.275 N 
ATOM     27  N   UNL     1      90.573   1.358  17.004  1.00  0.00    -0.181 NA
ATOM     28  C   UNL     1      92.197   3.127  17.223  1.00  0.00    +0.173 C 
ENDBRANCH  20  23
ENDBRANCH   2  13
ENDBRANCH   1   2
BRANCH   1  29
ATOM     29  C   UNL     1      82.029   3.833  14.189  1.00  0.00    +0.103 C 
BRANCH  29  30
ATOM     30  N   UNL     1      80.617   3.730  14.529  1.00  0.00    -0.313 NA
ATOM     31  H   UNL     1      80.164   3.109  13.859  1.00  0.00    +0.123 HD
BRANCH  30  32
ATOM     32  C   UNL     1      79.979   5.039  14.505  1.00  0.00    +0.047 C 
ATOM     33  C   UNL     1      78.829   5.048  13.502  1.00  0.00    +0.024 C 
ATOM     34  C   UNL     1      81.016   6.104  14.160  1.00  0.00    +0.024 C 
ENDBRANCH  30  32
ENDBRANCH  29  30
ENDBRANCH   1  29
TORSDOF 9
ENDMDL
MODEL 9
REMARK VINA RESULT:    -8.051      2.438      5.397
REMARK INTER + INTRA:         -13.266
REMARK INTER:                 -12.277
REMARK INTRA:                  -0.989
REMARK UNBOUND:                -0.979
REMARK SMILES COc1cc(OC)cc(N(CCNC(C)C)c2ccc3ncc(-c4cnn(C)c4)nc3c2)c1
REMARK SMILES IDX 11 1 10 2 9 3 3 4 33 5 4 6 5 7 8 8 2 9 1 10 6 11 7 12 17 13
REMARK SMILES IDX 32 14 18 15 31 16 19 17 30 18 20 19 23 20 21 21 22 22 24 23
REMARK SMILES IDX 29 24 25 25 27 26 26 27 28 28 12 29 13 30 14 32 15 33 16 34
REMARK H PARENT 13 31
ROOT
ATOM      1  C   UNL     1      89.167   2.418  12.728  1.00  0.00    +0.138 C 
ENDROOT
BRANCH   1   2
ATOM      2  N   UNL     1      88.603   2.756  14.046  1.00  0.00    -0.340 N 
BRANCH   2   3
ATOM      3  C   UNL     1      89.370   2.293  15.152  1.00  0.00    +0.049 A 
ATOM      4  C   UNL     1      89.648   0.791  17.024  1.00  0.00    +0.124 A 
ATOM      5  C   UNL     1      88.896   1.245  15.941  1.00  0.00    +0.073 A 
ATOM      6  C   UNL     1      90.876   1.386  17.318  1.00  0.00    +0.093 A 
ATOM      7  C   UNL     1      91.349   2.434  16.530  1.00  0.00    +0.124 A 
ATOM      8  C   UNL     1      90.596   2.888  15.447  1.00  0.00    +0.073 A 
BRANCH   4   9
ATOM      9  O   UNL     1      89.186  -0.232  17.792  1.00  0.00    -0.497 OA
ATOM     10  C   UNL     1      89.217  -0.049  19.206  1.00  0.00    +0.278 C 
ENDBRANCH   4   9
BRANCH   7  11
ATOM     11  O   UNL     1      92.547   3.013  16.818  1.00  0.00    -0.497 OA
ATOM     12  C   UNL     1      92.651   3.702  18.063  1.00  0.00    +0.278 C 
ENDBRANCH   7  11
ENDBRANCH   2   3
BRANCH   2  13
ATOM     13  C   UNL     1      87.532   3.672  14.091  1.00  0.00    +0.043 A 
ATOM     14  C   UNL     1      86.363   3.418  13.377  1.00  0.00    +0.056 A 
ATOM     15  C   UNL     1      87.633   4.830  14.848  1.00  0.00    +0.028 A 
ATOM     16  C   UNL     1      85.289   4.305  13.407  1.00  0.00    +0.091 A 
ATOM     17  C   UNL     1      86.565   5.724  14.884  1.00  0.00    +0.033 A 
ATOM     18  N   UNL     1      84.171   4.038  12.709  1.00  0.00    -0.244 NA
ATOM     19  C   UNL     1      85.392   5.480  14.174  1.00  0.00    +0.089 A 
ATOM     20  C   UNL     1      83.165   4.929  12.772  1.00  0.00    +0.092 A 
ATOM     21  N   UNL     1      84.375   6.358  14.224  1.00  0.00    -0.252 NA
ATOM     22  C   UNL     1      83.265   6.072  13.518  1.00  0.00    +0.140 A 
BRANCH  20  23
ATOM     23  C   UNL     1      81.984   4.623  12.023  1.00  0.00    +0.040 A 
ATOM     24  C   UNL     1      81.643   5.228  10.836  1.00  0.00    +0.118 A 
ATOM     25  C   UNL     1      80.941   3.709  12.263  1.00  0.00    +0.145 A 
ATOM     26  N   UNL     1      80.463   4.661  10.455  1.00  0.00    -0.275 N 
ATOM     27  N   UNL     1      80.007   3.728  11.309  1.00  0.00    -0.181 NA
ATOM     28  C   UNL     1      79.708   4.974   9.266  1.00  0.00    +0.173 C 
ENDBRANCH  20  23
ENDBRANCH   2  13
ENDBRANCH   1   2
BRANCH   1  29
ATOM     29  C   UNL     1      88.583   1.098  12.244  1.00  0.00    +0.103 C 
BRANCH  29  30
ATOM     30  N   UNL     1      87.671   1.325  11.131  1.00  0.00    -0.313 NA
ATOM     31  H   UNL     1      86.773   0.895  11.352  1.00  0.00    +0.123 HD
BRANCH  30  32
ATOM     32  C   UNL     1      88.203   0.759   9.899  1.00  0.00    +0.047 C 
ATOM     33  C   UNL     1      87.162   0.844   8.786  1.00  0.00    +0.024 C 
ATOM     34  C   UNL     1      88.626  -0.686  10.144  1.00  0.00    +0.024 C 
ENDBRANCH  30  32
ENDBRANCH  29  30
ENDBRANCH   1  29
TORSDOF 9
ENDMDL
MODEL 10
REMARK VINA RESULT:    -7.916      2.651      7.225
REMARK INTER + INTRA:         -13.060
REMARK INTER:                 -11.785
REMARK INTRA:                  -1.275
REMARK UNBOUND:                -0.979
REMARK SMILES COc1cc(OC)cc(N(CCNC(C)C)c2ccc3ncc(-c4cnn(C)c4)nc3c2)c1
REMARK SMILES IDX 11 1 10 2 9 3 3 4 33 5 4 6 5 7 8 8 2 9 1 10 6 11 7 12 17 13
REMARK SMILES IDX 32 14 18 15 31 16 19 17 30 18 20 19 23 20 21 21 22 22 24 23
REMARK SMILES IDX 29 24 25 25 27 26 26 27 28 28 12 29 13 30 14 32 15 33 16 34
REMARK H PARENT 13 31
ROOT
ATOM      1  C   UNL     1      88.334   2.537  12.118  1.00  0.00    +0.138 C 
ENDROOT
BRANCH   1   2
ATOM      2  N   UNL     1      87.632   2.430  13.409  1.00  0.00    -0.340 N 
BRANCH   2   3
ATOM      3  C   UNL     1      88.463   2.050  14.501  1.00  0.00    +0.049 A 
ATOM      4  C   UNL     1      88.888   0.637  16.415  1.00  0.00    +0.124 A 
ATOM      5  C   UNL     1      88.074   1.010  15.345  1.00  0.00    +0.073 A 
ATOM      6  C   UNL     1      90.092   1.304  16.639  1.00  0.00    +0.093 A 
ATOM      7  C   UNL     1      90.482   2.343  15.795  1.00  0.00    +0.124 A 
ATOM      8  C   UNL     1      89.667   2.717  14.726  1.00  0.00    +0.073 A 
BRANCH   4   9
ATOM      9  O   UNL     1      88.508  -0.378  17.237  1.00  0.00    -0.497 OA
ATOM     10  C   UNL     1      89.354  -0.665  18.349  1.00  0.00    +0.278 C 
ENDBRANCH   4   9
BRANCH   7  11
ATOM     11  O   UNL     1      91.657   2.994  16.015  1.00  0.00    -0.497 OA
ATOM     12  C   UNL     1      92.154   3.000  17.353  1.00  0.00    +0.278 C 
ENDBRANCH   7  11
ENDBRANCH   2   3
BRANCH   2  13
ATOM     13  C   UNL     1      86.315   2.925  13.489  1.00  0.00    +0.043 A 
ATOM     14  C   UNL     1      86.077   4.210  13.971  1.00  0.00    +0.056 A 
ATOM     15  C   UNL     1      85.247   2.138  13.086  1.00  0.00    +0.028 A 
ATOM     16  C   UNL     1      84.785   4.724  14.058  1.00  0.00    +0.091 A 
ATOM     17  C   UNL     1      83.950   2.641  13.169  1.00  0.00    +0.033 A 
ATOM     18  N   UNL     1      84.582   5.968  14.527  1.00  0.00    -0.244 NA
ATOM     19  C   UNL     1      83.702   3.925  13.650  1.00  0.00    +0.089 A 
ATOM     20  C   UNL     1      83.314   6.414  14.590  1.00  0.00    +0.092 A 
ATOM     21  N   UNL     1      82.442   4.389  13.721  1.00  0.00    -0.252 NA
ATOM     22  C   UNL     1      82.260   5.636  14.194  1.00  0.00    +0.140 A 
BRANCH  20  23
ATOM     23  C   UNL     1      83.121   7.741  15.091  1.00  0.00    +0.040 A 
ATOM     24  C   UNL     1      83.792   8.265  16.170  1.00  0.00    +0.118 A 
ATOM     25  C   UNL     1      82.275   8.782  14.665  1.00  0.00    +0.145 A 
ATOM     26  N   UNL     1      83.325   9.537  16.318  1.00  0.00    -0.275 N 
ATOM     27  N   UNL     1      82.394   9.883  15.412  1.00  0.00    -0.181 NA
ATOM     28  C   UNL     1      83.734  10.488  17.324  1.00  0.00    +0.173 C 
ENDBRANCH  20  23
ENDBRANCH   2  13
ENDBRANCH   1   2
BRANCH   1  29
ATOM     29  C   UNL     1      88.284   1.196  11.397  1.00  0.00    +0.103 C 
BRANCH  29  30
ATOM     30  N   UNL     1      87.433   1.286  10.218  1.00  0.00    -0.313 NA
ATOM     31  H   UNL     1      86.492   0.986  10.472  1.00  0.00    +0.123 HD
BRANCH  30  32
ATOM     32  C   UNL     1      87.947   0.453   9.141  1.00  0.00    +0.047 C 
ATOM     33  C   UNL     1      86.825   0.092   8.169  1.00  0.00    +0.024 C 
ATOM     34  C   UNL     1      88.586  -0.802   9.728  1.00  0.00    +0.024 C 
ENDBRANCH  30  32
ENDBRANCH  29  30
ENDBRANCH   1  29
TORSDOF 9
ENDMDL
MODEL 11
REMARK VINA RESULT:    -7.898      4.343      8.973
REMARK INTER + INTRA:         -13.032
REMARK INTER:                 -11.745
REMARK INTRA:                  -1.287
REMARK UNBOUND:                -0.979
REMARK SMILES COc1cc(OC)cc(N(CCNC(C)C)c2ccc3ncc(-c4cnn(C)c4)nc3c2)c1
REMARK SMILES IDX 11 1 10 2 9 3 3 4 33 5 4 6 5 7 8 8 2 9 1 10 6 11 7 12 17 13
REMARK SMILES IDX 32 14 18 15 31 16 19 17 30 18 20 19 23 20 21 21 22 22 24 23
REMARK SMILES IDX 29 24 25 25 27 26 26 27 28 28 12 29 13 30 14 32 15 33 16 34
REMARK H PARENT 13 31
ROOT
ATOM      1  C   UNL     1      84.117   6.783  12.002  1.00  0.00    +0.138 C 
ENDROOT
BRANCH   1   2
ATOM      2  N   UNL     1      83.875   5.343  12.194  1.00  0.00    -0.340 N 
BRANCH   2   3
ATOM      3  C   UNL     1      82.500   4.978  12.243  1.00  0.00    +0.049 A 
ATOM      4  C   UNL     1      80.432   4.453  11.110  1.00  0.00    +0.124 A 
ATOM      5  C   UNL     1      81.779   4.810  11.061  1.00  0.00    +0.073 A 
ATOM      6  C   UNL     1      79.805   4.263  12.342  1.00  0.00    +0.093 A 
ATOM      7  C   UNL     1      80.526   4.431  13.524  1.00  0.00    +0.124 A 
ATOM      8  C   UNL     1      81.873   4.789  13.475  1.00  0.00    +0.073 A 
BRANCH   4   9
ATOM      9  O   UNL     1      79.729   4.288   9.956  1.00  0.00    -0.497 OA
ATOM     10  C   UNL     1      78.643   5.182   9.723  1.00  0.00    +0.278 C 
ENDBRANCH   4   9
BRANCH   7  11
ATOM     11  O   UNL     1      79.914   4.245  14.725  1.00  0.00    -0.497 OA
ATOM     12  C   UNL     1      79.652   5.410  15.506  1.00  0.00    +0.278 C 
ENDBRANCH   7  11
ENDBRANCH   2   3
BRANCH   2  13
ATOM     13  C   UNL     1      84.972   4.466  12.075  1.00  0.00    +0.043 A 
ATOM     14  C   UNL     1      85.817   4.249  13.161  1.00  0.00    +0.056 A 
ATOM     15  C   UNL     1      85.218   3.812  10.877  1.00  0.00    +0.028 A 
ATOM     16  C   UNL     1      86.907   3.387  13.071  1.00  0.00    +0.091 A 
ATOM     17  C   UNL     1      86.306   2.948  10.775  1.00  0.00    +0.033 A 
ATOM     18  N   UNL     1      87.707   3.194  14.135  1.00  0.00    -0.244 NA
ATOM     19  C   UNL     1      87.156   2.724  11.856  1.00  0.00    +0.089 A 
ATOM     20  C   UNL     1      88.747   2.351  13.992  1.00  0.00    +0.092 A 
ATOM     21  N   UNL     1      88.200   1.885  11.734  1.00  0.00    -0.252 NA
ATOM     22  C   UNL     1      88.989   1.706  12.809  1.00  0.00    +0.140 A 
BRANCH  20  23
ATOM     23  C   UNL     1      89.583   2.160  15.137  1.00  0.00    +0.040 A 
ATOM     24  C   UNL     1      90.579   3.027  15.521  1.00  0.00    +0.118 A 
ATOM     25  C   UNL     1      89.623   1.133  16.099  1.00  0.00    +0.145 A 
ATOM     26  N   UNL     1      91.131   2.487  16.644  1.00  0.00    -0.275 N 
ATOM     27  N   UNL     1      90.568   1.327  17.023  1.00  0.00    -0.181 NA
ATOM     28  C   UNL     1      92.219   3.041  17.414  1.00  0.00    +0.173 C 
ENDBRANCH  20  23
ENDBRANCH   2  13
ENDBRANCH   1   2
BRANCH   1  29
ATOM     29  C   UNL     1      84.386   7.440  13.350  1.00  0.00    +0.103 C 
BRANCH  29  30
ATOM     30  N   UNL     1      85.620   8.212  13.300  1.00  0.00    -0.313 NA
ATOM     31  H   UNL     1      86.042   8.096  12.378  1.00  0.00    +0.123 HD
BRANCH  30  32
ATOM     32  C   UNL     1      86.551   7.773  14.330  1.00  0.00    +0.047 C 
ATOM     33  C   UNL     1      85.939   7.970  15.715  1.00  0.00    +0.024 C 
ATOM     34  C   UNL     1      87.860   8.545  14.196  1.00  0.00    +0.024 C 
ENDBRANCH  30  32
ENDBRANCH  29  30
ENDBRANCH   1  29
TORSDOF 9
ENDMDL
MODEL 12
REMARK VINA RESULT:    -7.870      4.101      8.676
REMARK INTER + INTRA:         -12.991
REMARK INTER:                 -11.395
REMARK INTRA:                  -1.596
REMARK UNBOUND:                -0.979
REMARK SMILES COc1cc(OC)cc(N(CCNC(C)C)c2ccc3ncc(-c4cnn(C)c4)nc3c2)c1
REMARK SMILES IDX 11 1 10 2 9 3 3 4 33 5 4 6 5 7 8 8 2 9 1 10 6 11 7 12 17 13
REMARK SMILES IDX 32 14 18 15 31 16 19 17 30 18 20 19 23 20 21 21 22 22 24 23
REMARK SMILES IDX 29 24 25 25 27 26 26 27 28 28 12 29 13 30 14 32 15 33 16 34
REMARK H PARENT 13 31
ROOT
ATOM      1  C   UNL     1      82.175   2.703  12.383  1.00  0.00    +0.138 C 
ENDROOT
BRANCH   1   2
ATOM      2  N   UNL     1      83.275   3.652  12.142  1.00  0.00    -0.340 N 
BRANCH   2   3
ATOM      3  C   UNL     1      82.922   5.021  12.316  1.00  0.00    +0.049 A 
ATOM      4  C   UNL     1      82.176   6.825  13.739  1.00  0.00    +0.124 A 
ATOM      5  C   UNL     1      82.521   5.484  13.569  1.00  0.00    +0.073 A 
ATOM      6  C   UNL     1      82.231   7.702  12.656  1.00  0.00    +0.093 A 
ATOM      7  C   UNL     1      82.632   7.238  11.403  1.00  0.00    +0.124 A 
ATOM      8  C   UNL     1      82.977   5.897  11.233  1.00  0.00    +0.073 A 
BRANCH   4   9
ATOM      9  O   UNL     1      81.786   7.277  14.961  1.00  0.00    -0.497 OA
ATOM     10  C   UNL     1      80.514   7.917  15.042  1.00  0.00    +0.278 C 
ENDBRANCH   4   9
BRANCH   7  11
ATOM     11  O   UNL     1      82.687   8.095  10.346  1.00  0.00    -0.497 OA
ATOM     12  C   UNL     1      81.465   8.345   9.651  1.00  0.00    +0.278 C 
ENDBRANCH   7  11
ENDBRANCH   2   3
BRANCH   2  13
ATOM     13  C   UNL     1      84.578   3.133  12.003  1.00  0.00    +0.043 A 
ATOM     14  C   UNL     1      85.426   3.063  13.105  1.00  0.00    +0.056 A 
ATOM     15  C   UNL     1      85.024   2.685  10.768  1.00  0.00    +0.028 A 
ATOM     16  C   UNL     1      86.717   2.552  12.995  1.00  0.00    +0.091 A 
ATOM     17  C   UNL     1      86.314   2.173  10.646  1.00  0.00    +0.033 A 
ATOM     18  N   UNL     1      87.518   2.495  14.075  1.00  0.00    -0.244 NA
ATOM     19  C   UNL     1      87.169   2.099  11.743  1.00  0.00    +0.089 A 
ATOM     20  C   UNL     1      88.756   1.993  13.912  1.00  0.00    +0.092 A 
ATOM     21  N   UNL     1      88.410   1.600  11.601  1.00  0.00    -0.252 NA
ATOM     22  C   UNL     1      89.195   1.553  12.693  1.00  0.00    +0.140 A 
BRANCH  20  23
ATOM     23  C   UNL     1      89.588   1.941  15.075  1.00  0.00    +0.040 A 
ATOM     24  C   UNL     1      90.568   2.859  15.365  1.00  0.00    +0.118 A 
ATOM     25  C   UNL     1      89.638   1.026  16.143  1.00  0.00    +0.145 A 
ATOM     26  N   UNL     1      91.122   2.454  16.543  1.00  0.00    -0.275 N 
ATOM     27  N   UNL     1      90.574   1.333  17.044  1.00  0.00    -0.181 NA
ATOM     28  C   UNL     1      92.197   3.104  17.253  1.00  0.00    +0.173 C 
ENDBRANCH  20  23
ENDBRANCH   2  13
ENDBRANCH   1   2
BRANCH   1  29
ATOM     29  C   UNL     1      80.982   3.070  11.510  1.00  0.00    +0.103 C 
BRANCH  29  30
ATOM     30  N   UNL     1      79.771   3.155  12.314  1.00  0.00    -0.313 NA
ATOM     31  H   UNL     1      79.257   2.279  12.224  1.00  0.00    +0.123 HD
BRANCH  30  32
ATOM     32  C   UNL     1      78.937   4.268  11.883  1.00  0.00    +0.047 C 
ATOM     33  C   UNL     1      79.567   4.968  10.682  1.00  0.00    +0.024 C 
ATOM     34  C   UNL     1      78.746   5.240  13.044  1.00  0.00    +0.024 C 
ENDBRANCH  30  32
ENDBRANCH  29  30
ENDBRANCH   1  29
TORSDOF 9
ENDMDL
MODEL 13
REMARK VINA RESULT:    -7.858      2.558      7.080
REMARK INTER + INTRA:         -12.972
REMARK INTER:                 -11.819
REMARK INTRA:                  -1.153
REMARK UNBOUND:                -0.979
REMARK SMILES COc1cc(OC)cc(N(CCNC(C)C)c2ccc3ncc(-c4cnn(C)c4)nc3c2)c1
REMARK SMILES IDX 11 1 10 2 9 3 3 4 33 5 4 6 5 7 8 8 2 9 1 10 6 11 7 12 17 13
REMARK SMILES IDX 32 14 18 15 31 16 19 17 30 18 20 19 23 20 21 21 22 22 24 23
REMARK SMILES IDX 29 24 25 25 27 26 26 27 28 28 12 29 13 30 14 32 15 33 16 34
REMARK H PARENT 13 31
ROOT
ATOM      1  C   UNL     1      88.174   2.659  12.162  1.00  0.00    +0.138 C 
ENDROOT
BRANCH   1   2
ATOM      2  N   UNL     1      87.510   2.402  13.452  1.00  0.00    -0.340 N 
BRANCH   2   3
ATOM      3  C   UNL     1      88.393   2.024  14.503  1.00  0.00    +0.049 A 
ATOM      4  C   UNL     1      90.459   2.336  15.716  1.00  0.00    +0.124 A 
ATOM      5  C   UNL     1      89.595   2.707  14.686  1.00  0.00    +0.073 A 
ATOM      6  C   UNL     1      90.120   1.282  16.565  1.00  0.00    +0.093 A 
ATOM      7  C   UNL     1      88.917   0.599  16.382  1.00  0.00    +0.124 A 
ATOM      8  C   UNL     1      88.054   0.969  15.351  1.00  0.00    +0.073 A 
BRANCH   4   9
ATOM      9  O   UNL     1      91.631   3.003  15.894  1.00  0.00    -0.497 OA
ATOM     10  C   UNL     1      92.165   3.037  17.216  1.00  0.00    +0.278 C 
ENDBRANCH   4   9
BRANCH   7  11
ATOM     11  O   UNL     1      88.587  -0.429  17.211  1.00  0.00    -0.497 OA
ATOM     12  C   UNL     1      89.218  -0.458  18.492  1.00  0.00    +0.278 C 
ENDBRANCH   7  11
ENDBRANCH   2   3
BRANCH   2  13
ATOM     13  C   UNL     1      86.156   2.770  13.584  1.00  0.00    +0.043 A 
ATOM     14  C   UNL     1      85.813   4.091  13.866  1.00  0.00    +0.056 A 
ATOM     15  C   UNL     1      85.156   1.821  13.433  1.00  0.00    +0.028 A 
ATOM     16  C   UNL     1      84.482   4.481  13.999  1.00  0.00    +0.091 A 
ATOM     17  C   UNL     1      83.821   2.201  13.565  1.00  0.00    +0.033 A 
ATOM     18  N   UNL     1      84.177   5.763  14.271  1.00  0.00    -0.244 NA
ATOM     19  C   UNL     1      83.468   3.519  13.846  1.00  0.00    +0.089 A 
ATOM     20  C   UNL     1      82.876   6.085  14.390  1.00  0.00    +0.092 A 
ATOM     21  N   UNL     1      82.174   3.861  13.969  1.00  0.00    -0.252 NA
ATOM     22  C   UNL     1      81.889   5.148  14.241  1.00  0.00    +0.140 A 
BRANCH  20  23
ATOM     23  C   UNL     1      82.574   7.454  14.677  1.00  0.00    +0.040 A 
ATOM     24  C   UNL     1      81.807   8.262  13.873  1.00  0.00    +0.118 A 
ATOM     25  C   UNL     1      82.943   8.281  15.755  1.00  0.00    +0.145 A 
ATOM     26  N   UNL     1      81.764   9.474  14.495  1.00  0.00    -0.275 N 
ATOM     27  N   UNL     1      82.451   9.518  15.649  1.00  0.00    -0.181 NA
ATOM     28  C   UNL     1      81.073  10.652  14.027  1.00  0.00    +0.173 C 
ENDBRANCH  20  23
ENDBRANCH   2  13
ENDBRANCH   1   2
BRANCH   1  29
ATOM     29  C   UNL     1      87.869   1.523  11.195  1.00  0.00    +0.103 C 
BRANCH  29  30
ATOM     30  N   UNL     1      87.141   2.024  10.037  1.00  0.00    -0.313 NA
ATOM     31  H   UNL     1      86.431   2.682  10.358  1.00  0.00    +0.123 HD
BRANCH  30  32
ATOM     32  C   UNL     1      86.514   0.933   9.305  1.00  0.00    +0.047 C 
ATOM     33  C   UNL     1      87.559  -0.103   8.900  1.00  0.00    +0.024 C 
ATOM     34  C   UNL     1      85.793   1.490   8.081  1.00  0.00    +0.024 C 
ENDBRANCH  30  32
ENDBRANCH  29  30
ENDBRANCH   1  29
TORSDOF 9
ENDMDL
MODEL 14
REMARK VINA RESULT:    -7.847      4.093      8.660
REMARK INTER + INTRA:         -12.954
REMARK INTER:                 -11.403
REMARK INTRA:                  -1.552
REMARK UNBOUND:                -0.979
REMARK SMILES COc1cc(OC)cc(N(CCNC(C)C)c2ccc3ncc(-c4cnn(C)c4)nc3c2)c1
REMARK SMILES IDX 11 1 10 2 9 3 3 4 33 5 4 6 5 7 8 8 2 9 1 10 6 11 7 12 17 13
REMARK SMILES IDX 32 14 18 15 31 16 19 17 30 18 20 19 23 20 21 21 22 22 24 23
REMARK SMILES IDX 29 24 25 25 27 26 26 27 28 28 12 29 13 30 14 32 15 33 16 34
REMARK H PARENT 13 31
ROOT
ATOM      1  C   UNL     1      82.322   2.801  12.296  1.00  0.00    +0.138 C 
ENDROOT
BRANCH   1   2
ATOM      2  N   UNL     1      83.420   3.755  12.062  1.00  0.00    -0.340 N 
BRANCH   2   3
ATOM      3  C   UNL     1      83.054   5.122  12.214  1.00  0.00    +0.049 A 
ATOM      4  C   UNL     1      82.644   7.299  11.249  1.00  0.00    +0.124 A 
ATOM      5  C   UNL     1      83.002   5.960  11.100  1.00  0.00    +0.073 A 
ATOM      6  C   UNL     1      82.336   7.801  12.514  1.00  0.00    +0.093 A 
ATOM      7  C   UNL     1      82.388   6.964  13.628  1.00  0.00    +0.124 A 
ATOM      8  C   UNL     1      82.747   5.625  13.479  1.00  0.00    +0.073 A 
BRANCH   4   9
ATOM      9  O   UNL     1      82.592   8.115  10.162  1.00  0.00    -0.497 OA
ATOM     10  C   UNL     1      82.068   7.560   8.957  1.00  0.00    +0.278 C 
ENDBRANCH   4   9
BRANCH   7  11
ATOM     11  O   UNL     1      82.087   7.455  14.862  1.00  0.00    -0.497 OA
ATOM     12  C   UNL     1      82.635   6.765  15.985  1.00  0.00    +0.278 C 
ENDBRANCH   7  11
ENDBRANCH   2   3
BRANCH   2  13
ATOM     13  C   UNL     1      84.728   3.243  11.950  1.00  0.00    +0.043 A 
ATOM     14  C   UNL     1      85.550   3.168  13.073  1.00  0.00    +0.056 A 
ATOM     15  C   UNL     1      85.207   2.809  10.723  1.00  0.00    +0.028 A 
ATOM     16  C   UNL     1      86.846   2.664  12.990  1.00  0.00    +0.091 A 
ATOM     17  C   UNL     1      86.502   2.304  10.628  1.00  0.00    +0.033 A 
ATOM     18  N   UNL     1      87.619   2.601  14.089  1.00  0.00    -0.244 NA
ATOM     19  C   UNL     1      87.331   2.224  11.745  1.00  0.00    +0.089 A 
ATOM     20  C   UNL     1      88.863   2.107  13.952  1.00  0.00    +0.092 A 
ATOM     21  N   UNL     1      88.577   1.733  11.629  1.00  0.00    -0.252 NA
ATOM     22  C   UNL     1      89.335   1.679  12.740  1.00  0.00    +0.140 A 
BRANCH  20  23
ATOM     23  C   UNL     1      89.667   2.048  15.134  1.00  0.00    +0.040 A 
ATOM     24  C   UNL     1      90.684   2.928  15.422  1.00  0.00    +0.118 A 
ATOM     25  C   UNL     1      89.650   1.162  16.228  1.00  0.00    +0.145 A 
ATOM     26  N   UNL     1      91.192   2.530  16.623  1.00  0.00    -0.275 N 
ATOM     27  N   UNL     1      90.580   1.451  17.142  1.00  0.00    -0.181 NA
ATOM     28  C   UNL     1      92.281   3.149  17.339  1.00  0.00    +0.173 C 
ENDBRANCH  20  23
ENDBRANCH   2  13
ENDBRANCH   1   2
BRANCH   1  29
ATOM     29  C   UNL     1      81.124   3.178  11.434  1.00  0.00    +0.103 C 
BRANCH  29  30
ATOM     30  N   UNL     1      79.884   2.954  12.164  1.00  0.00    -0.313 NA
ATOM     31  H   UNL     1      79.355   2.220  11.692  1.00  0.00    +0.123 HD
BRANCH  30  32
ATOM     32  C   UNL     1      79.091   4.173  12.230  1.00  0.00    +0.047 C 
ATOM     33  C   UNL     1      79.503   5.134  11.118  1.00  0.00    +0.024 C 
ATOM     34  C   UNL     1      79.263   4.818  13.602  1.00  0.00    +0.024 C 
ENDBRANCH  30  32
ENDBRANCH  29  30
ENDBRANCH   1  29
TORSDOF 9
ENDMDL
MODEL 15
REMARK VINA RESULT:    -7.765      3.952      8.229
REMARK INTER + INTRA:         -12.830
REMARK INTER:                 -11.554
REMARK INTRA:                  -1.275
REMARK UNBOUND:                -0.979
REMARK SMILES COc1cc(OC)cc(N(CCNC(C)C)c2ccc3ncc(-c4cnn(C)c4)nc3c2)c1
REMARK SMILES IDX 11 1 10 2 9 3 3 4 33 5 4 6 5 7 8 8 2 9 1 10 6 11 7 12 17 13
REMARK SMILES IDX 32 14 18 15 31 16 19 17 30 18 20 19 23 20 21 21 22 22 24 23
REMARK SMILES IDX 29 24 25 25 27 26 26 27 28 28 12 29 13 30 14 32 15 33 16 34
REMARK H PARENT 13 31
ROOT
ATOM      1  C   UNL     1      82.064   2.167   9.468  1.00  0.00    +0.138 C 
ENDROOT
BRANCH   1   2
ATOM      2  N   UNL     1      83.051   2.944  10.238  1.00  0.00    -0.340 N 
BRANCH   2   3
ATOM      3  C   UNL     1      82.488   3.961  11.060  1.00  0.00    +0.049 A 
ATOM      4  C   UNL     1      80.738   4.727  12.539  1.00  0.00    +0.124 A 
ATOM      5  C   UNL     1      81.289   3.731  11.733  1.00  0.00    +0.073 A 
ATOM      6  C   UNL     1      81.387   5.955  12.671  1.00  0.00    +0.093 A 
ATOM      7  C   UNL     1      82.587   6.185  11.998  1.00  0.00    +0.124 A 
ATOM      8  C   UNL     1      83.137   5.189  11.191  1.00  0.00    +0.073 A 
BRANCH   4   9
ATOM      9  O   UNL     1      79.568   4.502  13.196  1.00  0.00    -0.497 OA
ATOM     10  C   UNL     1      79.610   4.518  14.621  1.00  0.00    +0.278 C 
ENDBRANCH   4   9
BRANCH   7  11
ATOM     11  O   UNL     1      83.221   7.383  12.128  1.00  0.00    -0.497 OA
ATOM     12  C   UNL     1      84.375   7.418  12.967  1.00  0.00    +0.278 C 
ENDBRANCH   7  11
ENDBRANCH   2   3
BRANCH   2  13
ATOM     13  C   UNL     1      84.379   2.474  10.274  1.00  0.00    +0.043 A 
ATOM     14  C   UNL     1      85.131   2.588  11.441  1.00  0.00    +0.056 A 
ATOM     15  C   UNL     1      84.947   1.895   9.149  1.00  0.00    +0.028 A 
ATOM     16  C   UNL     1      86.446   2.131  11.504  1.00  0.00    +0.091 A 
ATOM     17  C   UNL     1      86.261   1.434   9.200  1.00  0.00    +0.033 A 
ATOM     18  N   UNL     1      87.151   2.251  12.643  1.00  0.00    -0.244 NA
ATOM     19  C   UNL     1      87.021   1.543  10.362  1.00  0.00    +0.089 A 
ATOM     20  C   UNL     1      88.416   1.793  12.647  1.00  0.00    +0.092 A 
ATOM     21  N   UNL     1      88.287   1.091  10.388  1.00  0.00    -0.252 NA
ATOM     22  C   UNL     1      88.976   1.222  11.537  1.00  0.00    +0.140 A 
BRANCH  20  23
ATOM     23  C   UNL     1      89.147   1.931  13.871  1.00  0.00    +0.040 A 
ATOM     24  C   UNL     1      89.058   1.056  14.926  1.00  0.00    +0.118 A 
ATOM     25  C   UNL     1      90.069   2.904  14.299  1.00  0.00    +0.145 A 
ATOM     26  N   UNL     1      89.900   1.539  15.884  1.00  0.00    -0.275 N 
ATOM     27  N   UNL     1      90.533   2.671  15.529  1.00  0.00    -0.181 NA
ATOM     28  C   UNL     1      90.146   0.957  17.181  1.00  0.00    +0.173 C 
ENDBRANCH  20  23
ENDBRANCH   2  13
ENDBRANCH   1   2
BRANCH   1  29
ATOM     29  C   UNL     1      81.768   2.877   8.153  1.00  0.00    +0.103 C 
BRANCH  29  30
ATOM     30  N   UNL     1      80.387   3.339   8.127  1.00  0.00    -0.313 NA
ATOM     31  H   UNL     1      79.947   3.006   7.268  1.00  0.00    +0.123 HD
BRANCH  30  32
ATOM     32  C   UNL     1      80.323   4.792   8.186  1.00  0.00    +0.047 C 
ATOM     33  C   UNL     1      79.224   5.235   9.149  1.00  0.00    +0.024 C 
ATOM     34  C   UNL     1      80.081   5.348   6.786  1.00  0.00    +0.024 C 
ENDBRANCH  30  32
ENDBRANCH  29  30
ENDBRANCH   1  29
TORSDOF 9
ENDMDL
MODEL 16
REMARK VINA RESULT:    -7.755      3.968      8.632
REMARK INTER + INTRA:         -12.814
REMARK INTER:                 -11.103
REMARK INTRA:                  -1.712
REMARK UNBOUND:                -0.979
REMARK SMILES COc1cc(OC)cc(N(CCNC(C)C)c2ccc3ncc(-c4cnn(C)c4)nc3c2)c1
REMARK SMILES IDX 11 1 10 2 9 3 3 4 33 5 4 6 5 7 8 8 2 9 1 10 6 11 7 12 17 13
REMARK SMILES IDX 32 14 18 15 31 16 19 17 30 18 20 19 23 20 21 21 22 22 24 23
REMARK SMILES IDX 29 24 25 25 27 26 26 27 28 28 12 29 13 30 14 32 15 33 16 34
REMARK H PARENT 13 31
ROOT
ATOM      1  C   UNL     1      82.231   2.194   9.303  1.00  0.00    +0.138 C 
ENDROOT
BRANCH   1   2
ATOM      2  N   UNL     1      83.173   2.946  10.149  1.00  0.00    -0.340 N 
BRANCH   2   3
ATOM      3  C   UNL     1      82.565   3.934  10.974  1.00  0.00    +0.049 A 
ATOM      4  C   UNL     1      82.239   6.253  11.569  1.00  0.00    +0.124 A 
ATOM      5  C   UNL     1      82.835   5.286  10.760  1.00  0.00    +0.073 A 
ATOM      6  C   UNL     1      81.371   5.869  12.591  1.00  0.00    +0.093 A 
ATOM      7  C   UNL     1      81.100   4.517  12.805  1.00  0.00    +0.124 A 
ATOM      8  C   UNL     1      81.698   3.550  11.997  1.00  0.00    +0.073 A 
BRANCH   4   9
ATOM      9  O   UNL     1      82.502   7.571  11.359  1.00  0.00    -0.497 OA
ATOM     10  C   UNL     1      81.901   8.181  10.218  1.00  0.00    +0.278 C 
ENDBRANCH   4   9
BRANCH   7  11
ATOM     11  O   UNL     1      80.253   4.143  13.802  1.00  0.00    -0.497 OA
ATOM     12  C   UNL     1      79.099   4.957  14.012  1.00  0.00    +0.278 C 
ENDBRANCH   7  11
ENDBRANCH   2   3
BRANCH   2  13
ATOM     13  C   UNL     1      84.500   2.479  10.238  1.00  0.00    +0.043 A 
ATOM     14  C   UNL     1      85.216   2.623  11.424  1.00  0.00    +0.056 A 
ATOM     15  C   UNL     1      85.102   1.870   9.146  1.00  0.00    +0.028 A 
ATOM     16  C   UNL     1      86.527   2.168  11.539  1.00  0.00    +0.091 A 
ATOM     17  C   UNL     1      86.413   1.412   9.250  1.00  0.00    +0.033 A 
ATOM     18  N   UNL     1      87.197   2.318  12.696  1.00  0.00    -0.244 NA
ATOM     19  C   UNL     1      87.137   1.551  10.432  1.00  0.00    +0.089 A 
ATOM     20  C   UNL     1      88.462   1.861  12.752  1.00  0.00    +0.092 A 
ATOM     21  N   UNL     1      88.402   1.101  10.508  1.00  0.00    -0.252 NA
ATOM     22  C   UNL     1      89.055   1.262  11.674  1.00  0.00    +0.140 A 
BRANCH  20  23
ATOM     23  C   UNL     1      89.154   2.031  13.993  1.00  0.00    +0.040 A 
ATOM     24  C   UNL     1      89.023   1.190  15.072  1.00  0.00    +0.118 A 
ATOM     25  C   UNL     1      90.072   3.009  14.420  1.00  0.00    +0.145 A 
ATOM     26  N   UNL     1      89.839   1.696  16.040  1.00  0.00    -0.275 N 
ATOM     27  N   UNL     1      90.494   2.810  15.671  1.00  0.00    -0.181 NA
ATOM     28  C   UNL     1      90.038   1.153  17.362  1.00  0.00    +0.173 C 
ENDBRANCH  20  23
ENDBRANCH   2  13
ENDBRANCH   1   2
BRANCH   1  29
ATOM     29  C   UNL     1      81.840   3.038   8.096  1.00  0.00    +0.103 C 
BRANCH  29  30
ATOM     30  N   UNL     1      80.405   3.285   8.093  1.00  0.00    -0.313 NA
ATOM     31  H   UNL     1      79.982   2.741   7.341  1.00  0.00    +0.123 HD
BRANCH  30  32
ATOM     32  C   UNL     1      80.121   4.700   7.904  1.00  0.00    +0.047 C 
ATOM     33  C   UNL     1      81.392   5.447   7.507  1.00  0.00    +0.024 C 
ATOM     34  C   UNL     1      79.526   5.275   9.186  1.00  0.00    +0.024 C 
ENDBRANCH  30  32
ENDBRANCH  29  30
ENDBRANCH   1  29
TORSDOF 9
ENDMDL
MODEL 17
REMARK VINA RESULT:    -7.755      2.671      5.442
REMARK INTER + INTRA:         -12.814
REMARK INTER:                 -11.693
REMARK INTRA:                  -1.122
REMARK UNBOUND:                -0.979
REMARK SMILES COc1cc(OC)cc(N(CCNC(C)C)c2ccc3ncc(-c4cnn(C)c4)nc3c2)c1
REMARK SMILES IDX 11 1 10 2 9 3 3 4 33 5 4 6 5 7 8 8 2 9 1 10 6 11 7 12 17 13
REMARK SMILES IDX 32 14 18 15 31 16 19 17 30 18 20 19 23 20 21 21 22 22 24 23
REMARK SMILES IDX 29 24 25 25 27 26 26 27 28 28 12 29 13 30 14 32 15 33 16 34
REMARK H PARENT 13 31
ROOT
ATOM      1  C   UNL     1      88.046   2.615  12.651  1.00  0.00    +0.138 C 
ENDROOT
BRANCH   1   2
ATOM      2  N   UNL     1      86.814   2.649  11.844  1.00  0.00    -0.340 N 
BRANCH   2   3
ATOM      3  C   UNL     1      85.832   3.571  12.306  1.00  0.00    +0.049 A 
ATOM      4  C   UNL     1      85.074   5.845  12.608  1.00  0.00    +0.124 A 
ATOM      5  C   UNL     1      86.036   4.942  12.155  1.00  0.00    +0.073 A 
ATOM      6  C   UNL     1      83.907   5.375  13.211  1.00  0.00    +0.093 A 
ATOM      7  C   UNL     1      83.703   4.004  13.362  1.00  0.00    +0.124 A 
ATOM      8  C   UNL     1      84.666   3.101  12.910  1.00  0.00    +0.073 A 
BRANCH   4   9
ATOM      9  O   UNL     1      85.272   7.182  12.459  1.00  0.00    -0.497 OA
ATOM     10  C   UNL     1      86.320   7.773  13.226  1.00  0.00    +0.278 C 
ENDBRANCH   4   9
BRANCH   7  11
ATOM     11  O   UNL     1      82.564   3.546  13.950  1.00  0.00    -0.497 OA
ATOM     12  C   UNL     1      81.549   4.509  14.235  1.00  0.00    +0.278 C 
ENDBRANCH   7  11
ENDBRANCH   2   3
BRANCH   2  13
ATOM     13  C   UNL     1      86.815   1.974  10.607  1.00  0.00    +0.043 A 
ATOM     14  C   UNL     1      85.854   2.273   9.644  1.00  0.00    +0.056 A 
ATOM     15  C   UNL     1      87.774   1.008  10.338  1.00  0.00    +0.028 A 
ATOM     16  C   UNL     1      85.834   1.622   8.413  1.00  0.00    +0.091 A 
ATOM     17  C   UNL     1      87.763   0.350   9.110  1.00  0.00    +0.033 A 
ATOM     18  N   UNL     1      84.896   1.929   7.499  1.00  0.00    -0.244 NA
ATOM     19  C   UNL     1      86.806   0.642   8.141  1.00  0.00    +0.089 A 
ATOM     20  C   UNL     1      84.923   1.268   6.327  1.00  0.00    +0.092 A 
ATOM     21  N   UNL     1      86.816  -0.007   6.963  1.00  0.00    -0.252 NA
ATOM     22  C   UNL     1      85.868   0.315   6.063  1.00  0.00    +0.140 A 
BRANCH  20  23
ATOM     23  C   UNL     1      83.916   1.613   5.370  1.00  0.00    +0.040 A 
ATOM     24  C   UNL     1      83.189   0.696   4.648  1.00  0.00    +0.118 A 
ATOM     25  C   UNL     1      83.433   2.862   4.937  1.00  0.00    +0.145 A 
ATOM     26  N   UNL     1      82.349   1.425   3.859  1.00  0.00    -0.275 N 
ATOM     27  N   UNL     1      82.475   2.754   4.013  1.00  0.00    -0.181 NA
ATOM     28  C   UNL     1      81.387   0.900   2.920  1.00  0.00    +0.173 C 
ENDBRANCH  20  23
ENDBRANCH   2  13
ENDBRANCH   1   2
BRANCH   1  29
ATOM     29  C   UNL     1      87.808   1.796  13.913  1.00  0.00    +0.103 C 
BRANCH  29  30
ATOM     30  N   UNL     1      88.443   2.434  15.058  1.00  0.00    -0.313 NA
ATOM     31  H   UNL     1      88.544   3.430  14.863  1.00  0.00    +0.123 HD
BRANCH  30  32
ATOM     32  C   UNL     1      89.748   1.846  15.325  1.00  0.00    +0.047 C 
ATOM     33  C   UNL     1      89.720   1.070  16.639  1.00  0.00    +0.024 C 
ATOM     34  C   UNL     1      90.804   2.946  15.360  1.00  0.00    +0.024 C 
ENDBRANCH  30  32
ENDBRANCH  29  30
ENDBRANCH   1  29
TORSDOF 9
ENDMDL
MODEL 18
REMARK VINA RESULT:    -7.693      4.392      9.005
REMARK INTER + INTRA:         -12.719
REMARK INTER:                 -11.261
REMARK INTRA:                  -1.459
REMARK UNBOUND:                -0.979
REMARK SMILES COc1cc(OC)cc(N(CCNC(C)C)c2ccc3ncc(-c4cnn(C)c4)nc3c2)c1
REMARK SMILES IDX 11 1 10 2 9 3 3 4 33 5 4 6 5 7 8 8 2 9 1 10 6 11 7 12 17 13
REMARK SMILES IDX 32 14 18 15 31 16 19 17 30 18 20 19 23 20 21 21 22 22 24 23
REMARK SMILES IDX 29 24 25 25 27 26 26 27 28 28 12 29 13 30 14 32 15 33 16 34
REMARK H PARENT 13 31
ROOT
ATOM      1  C   UNL     1      84.721   6.792  12.180  1.00  0.00    +0.138 C 
ENDROOT
BRANCH   1   2
ATOM      2  N   UNL     1      84.331   5.422  11.804  1.00  0.00    -0.340 N 
BRANCH   2   3
ATOM      3  C   UNL     1      83.020   5.312  11.258  1.00  0.00    +0.049 A 
ATOM      4  C   UNL     1      80.808   4.342  11.305  1.00  0.00    +0.124 A 
ATOM      5  C   UNL     1      82.092   4.449  11.840  1.00  0.00    +0.073 A 
ATOM      6  C   UNL     1      80.453   5.099  10.188  1.00  0.00    +0.093 A 
ATOM      7  C   UNL     1      81.381   5.962   9.607  1.00  0.00    +0.124 A 
ATOM      8  C   UNL     1      82.666   6.068  10.141  1.00  0.00    +0.073 A 
BRANCH   4   9
ATOM      9  O   UNL     1      79.903   3.501  11.873  1.00  0.00    -0.497 OA
ATOM     10  C   UNL     1      78.681   4.076  12.334  1.00  0.00    +0.278 C 
ENDBRANCH   4   9
BRANCH   7  11
ATOM     11  O   UNL     1      81.034   6.701   8.517  1.00  0.00    -0.497 OA
ATOM     12  C   UNL     1      81.910   6.647   7.392  1.00  0.00    +0.278 C 
ENDBRANCH   7  11
ENDBRANCH   2   3
BRANCH   2  13
ATOM     13  C   UNL     1      85.330   4.429  11.796  1.00  0.00    +0.043 A 
ATOM     14  C   UNL     1      86.160   4.260  12.902  1.00  0.00    +0.056 A 
ATOM     15  C   UNL     1      85.493   3.610  10.688  1.00  0.00    +0.028 A 
ATOM     16  C   UNL     1      87.154   3.285  12.921  1.00  0.00    +0.091 A 
ATOM     17  C   UNL     1      86.485   2.631  10.696  1.00  0.00    +0.033 A 
ATOM     18  N   UNL     1      87.943   3.142  14.001  1.00  0.00    -0.244 NA
ATOM     19  C   UNL     1      87.320   2.455  11.797  1.00  0.00    +0.089 A 
ATOM     20  C   UNL     1      88.888   2.184  13.965  1.00  0.00    +0.092 A 
ATOM     21  N   UNL     1      88.270   1.504  11.781  1.00  0.00    -0.252 NA
ATOM     22  C   UNL     1      89.049   1.377  12.871  1.00  0.00    +0.140 A 
BRANCH  20  23
ATOM     23  C   UNL     1      89.713   2.049  15.126  1.00  0.00    +0.040 A 
ATOM     24  C   UNL     1      90.675   2.957  15.500  1.00  0.00    +0.118 A 
ATOM     25  C   UNL     1      89.772   1.049  16.115  1.00  0.00    +0.145 A 
ATOM     26  N   UNL     1      91.228   2.465  16.645  1.00  0.00    -0.275 N 
ATOM     27  N   UNL     1      90.696   1.297  17.046  1.00  0.00    -0.181 NA
ATOM     28  C   UNL     1      92.286   3.072  17.415  1.00  0.00    +0.173 C 
ENDBRANCH  20  23
ENDBRANCH   2  13
ENDBRANCH   1   2
BRANCH   1  29
ATOM     29  C   UNL     1      84.012   7.192  13.467  1.00  0.00    +0.103 C 
BRANCH  29  30
ATOM     30  N   UNL     1      84.881   8.026  14.286  1.00  0.00    -0.313 NA
ATOM     31  H   UNL     1      84.899   8.966  13.890  1.00  0.00    +0.123 HD
BRANCH  30  32
ATOM     32  C   UNL     1      86.230   7.481  14.336  1.00  0.00    +0.047 C 
ATOM     33  C   UNL     1      86.466   6.773  15.668  1.00  0.00    +0.024 C 
ATOM     34  C   UNL     1      87.240   8.605  14.127  1.00  0.00    +0.024 C 
ENDBRANCH  30  32
ENDBRANCH  29  30
ENDBRANCH   1  29
TORSDOF 9
ENDMDL
MODEL 19
REMARK VINA RESULT:    -7.685      4.293      8.594
REMARK INTER + INTRA:         -12.708
REMARK INTER:                 -11.308
REMARK INTRA:                  -1.400
REMARK UNBOUND:                -0.979
REMARK SMILES COc1cc(OC)cc(N(CCNC(C)C)c2ccc3ncc(-c4cnn(C)c4)nc3c2)c1
REMARK SMILES IDX 11 1 10 2 9 3 3 4 33 5 4 6 5 7 8 8 2 9 1 10 6 11 7 12 17 13
REMARK SMILES IDX 32 14 18 15 31 16 19 17 30 18 20 19 23 20 21 21 22 22 24 23
REMARK SMILES IDX 29 24 25 25 27 26 26 27 28 28 12 29 13 30 14 32 15 33 16 34
REMARK H PARENT 13 31
ROOT
ATOM      1  C   UNL     1      82.059   2.458  10.451  1.00  0.00    +0.138 C 
ENDROOT
BRANCH   1   2
ATOM      2  N   UNL     1      83.224   3.315  10.171  1.00  0.00    -0.340 N 
BRANCH   2   3
ATOM      3  C   UNL     1      82.927   4.706  10.095  1.00  0.00    +0.049 A 
ATOM      4  C   UNL     1      83.040   6.925  11.042  1.00  0.00    +0.124 A 
ATOM      5  C   UNL     1      83.331   5.563  11.118  1.00  0.00    +0.073 A 
ATOM      6  C   UNL     1      82.345   7.430   9.943  1.00  0.00    +0.093 A 
ATOM      7  C   UNL     1      81.941   6.572   8.920  1.00  0.00    +0.124 A 
ATOM      8  C   UNL     1      82.231   5.210   8.996  1.00  0.00    +0.073 A 
BRANCH   4   9
ATOM      9  O   UNL     1      83.435   7.762  12.040  1.00  0.00    -0.497 OA
ATOM     10  C   UNL     1      84.388   7.256  12.973  1.00  0.00    +0.278 C 
ENDBRANCH   4   9
BRANCH   7  11
ATOM     11  O   UNL     1      81.263   7.065   7.847  1.00  0.00    -0.497 OA
ATOM     12  C   UNL     1      82.007   7.852   6.917  1.00  0.00    +0.278 C 
ENDBRANCH   7  11
ENDBRANCH   2   3
BRANCH   2  13
ATOM     13  C   UNL     1      84.505   2.733  10.240  1.00  0.00    +0.043 A 
ATOM     14  C   UNL     1      85.257   2.828  11.409  1.00  0.00    +0.056 A 
ATOM     15  C   UNL     1      85.028   2.060   9.145  1.00  0.00    +0.028 A 
ATOM     16  C   UNL     1      86.525   2.260  11.504  1.00  0.00    +0.091 A 
ATOM     17  C   UNL     1      86.296   1.489   9.229  1.00  0.00    +0.033 A 
ATOM     18  N   UNL     1      87.230   2.365  12.645  1.00  0.00    -0.244 NA
ATOM     19  C   UNL     1      87.054   1.578  10.394  1.00  0.00    +0.089 A 
ATOM     20  C   UNL     1      88.450   1.798  12.681  1.00  0.00    +0.092 A 
ATOM     21  N   UNL     1      88.275   1.018  10.451  1.00  0.00    -0.252 NA
ATOM     22  C   UNL     1      88.965   1.135  11.601  1.00  0.00    +0.140 A 
BRANCH  20  23
ATOM     23  C   UNL     1      89.181   1.921  13.906  1.00  0.00    +0.040 A 
ATOM     24  C   UNL     1      89.072   1.048  14.962  1.00  0.00    +0.118 A 
ATOM     25  C   UNL     1      90.123   2.875  14.335  1.00  0.00    +0.145 A 
ATOM     26  N   UNL     1      89.922   1.515  15.920  1.00  0.00    -0.275 N 
ATOM     27  N   UNL     1      90.580   2.632  15.566  1.00  0.00    -0.181 NA
ATOM     28  C   UNL     1      90.154   0.928  17.218  1.00  0.00    +0.173 C 
ENDBRANCH  20  23
ENDBRANCH   2  13
ENDBRANCH   1   2
BRANCH   1  29
ATOM     29  C   UNL     1      81.550   2.730  11.860  1.00  0.00    +0.103 C 
BRANCH  29  30
ATOM     30  N   UNL     1      80.151   3.134  11.825  1.00  0.00    -0.313 NA
ATOM     31  H   UNL     1      79.813   3.057  10.865  1.00  0.00    +0.123 HD
BRANCH  30  32
ATOM     32  C   UNL     1      79.992   4.501  12.300  1.00  0.00    +0.047 C 
ATOM     33  C   UNL     1      79.289   4.512  13.655  1.00  0.00    +0.024 C 
ATOM     34  C   UNL     1      79.208   5.309  11.270  1.00  0.00    +0.024 C 
ENDBRANCH  30  32
ENDBRANCH  29  30
ENDBRANCH   1  29
TORSDOF 9
ENDMDL
MODEL 20
REMARK VINA RESULT:    -7.583      4.411      9.051
REMARK INTER + INTRA:         -12.552
REMARK INTER:                 -10.911
REMARK INTRA:                  -1.642
REMARK UNBOUND:                -0.979
REMARK SMILES COc1cc(OC)cc(N(CCNC(C)C)c2ccc3ncc(-c4cnn(C)c4)nc3c2)c1
REMARK SMILES IDX 11 1 10 2 9 3 3 4 33 5 4 6 5 7 8 8 2 9 1 10 6 11 7 12 17 13
REMARK SMILES IDX 32 14 18 15 31 16 19 17 30 18 20 19 23 20 21 21 22 22 24 23
REMARK SMILES IDX 29 24 25 25 27 26 26 27 28 28 12 29 13 30 14 32 15 33 16 34
REMARK H PARENT 13 31
ROOT
ATOM      1  C   UNL     1      84.593   6.711  12.213  1.00  0.00    +0.138 C 
ENDROOT
BRANCH   1   2
ATOM      2  N   UNL     1      84.274   5.342  11.772  1.00  0.00    -0.340 N 
BRANCH   2   3
ATOM      3  C   UNL     1      82.982   5.196  11.194  1.00  0.00    +0.049 A 
ATOM      4  C   UNL     1      80.764   4.238  11.241  1.00  0.00    +0.124 A 
ATOM      5  C   UNL     1      82.030   4.381  11.807  1.00  0.00    +0.073 A 
ATOM      6  C   UNL     1      80.449   4.912  10.060  1.00  0.00    +0.093 A 
ATOM      7  C   UNL     1      81.400   5.727   9.447  1.00  0.00    +0.124 A 
ATOM      8  C   UNL     1      82.667   5.869  10.013  1.00  0.00    +0.073 A 
BRANCH   4   9
ATOM      9  O   UNL     1      79.836   3.444  11.840  1.00  0.00    -0.497 OA
ATOM     10  C   UNL     1      78.642   4.074  12.301  1.00  0.00    +0.278 C 
ENDBRANCH   4   9
BRANCH   7  11
ATOM     11  O   UNL     1      81.091   6.384   8.295  1.00  0.00    -0.497 OA
ATOM     12  C   UNL     1      79.728   6.346   7.873  1.00  0.00    +0.278 C 
ENDBRANCH   7  11
ENDBRANCH   2   3
BRANCH   2  13
ATOM     13  C   UNL     1      85.319   4.397  11.744  1.00  0.00    +0.043 A 
ATOM     14  C   UNL     1      86.129   4.214  12.862  1.00  0.00    +0.056 A 
ATOM     15  C   UNL     1      85.547   3.640  10.604  1.00  0.00    +0.028 A 
ATOM     16  C   UNL     1      87.167   3.285  12.862  1.00  0.00    +0.091 A 
ATOM     17  C   UNL     1      86.582   2.708  10.592  1.00  0.00    +0.033 A 
ATOM     18  N   UNL     1      87.935   3.127  13.954  1.00  0.00    -0.244 NA
ATOM     19  C   UNL     1      87.398   2.518  11.705  1.00  0.00    +0.089 A 
ATOM     20  C   UNL     1      88.924   2.216  13.898  1.00  0.00    +0.092 A 
ATOM     21  N   UNL     1      88.391   1.613  11.670  1.00  0.00    -0.252 NA
ATOM     22  C   UNL     1      89.149   1.470  12.773  1.00  0.00    +0.140 A 
BRANCH  20  23
ATOM     23  C   UNL     1      89.727   2.064  15.073  1.00  0.00    +0.040 A 
ATOM     24  C   UNL     1      90.732   2.928  15.440  1.00  0.00    +0.118 A 
ATOM     25  C   UNL     1      89.720   1.085  16.085  1.00  0.00    +0.145 A 
ATOM     26  N   UNL     1      91.243   2.432  16.602  1.00  0.00    -0.275 N 
ATOM     27  N   UNL     1      90.645   1.304  17.023  1.00  0.00    -0.181 NA
ATOM     28  C   UNL     1      92.324   3.000  17.373  1.00  0.00    +0.173 C 
ENDBRANCH  20  23
ENDBRANCH   2  13
ENDBRANCH   1   2
BRANCH   1  29
ATOM     29  C   UNL     1      83.933   6.983  13.559  1.00  0.00    +0.103 C 
BRANCH  29  30
ATOM     30  N   UNL     1      82.937   8.038  13.431  1.00  0.00    -0.313 NA
ATOM     31  H   UNL     1      83.346   8.914  13.758  1.00  0.00    +0.123 HD
BRANCH  30  32
ATOM     32  C   UNL     1      81.745   7.726  14.207  1.00  0.00    +0.047 C 
ATOM     33  C   UNL     1      82.026   6.574  15.169  1.00  0.00    +0.024 C 
ATOM     34  C   UNL     1      80.598   7.384  13.262  1.00  0.00    +0.024 C 
ENDBRANCH  30  32
ENDBRANCH  29  30
ENDBRANCH   1  29
TORSDOF 9
ENDMDL
